; Produzione, 1 ns (aumentare nsteps per run più lunghi: 500000 = 1 ns)
integrator  = md
dt          = 0.002
nsteps      = 500000
nstenergy   = 5000
nstlog      = 5000
nstxout-compressed = 5000
compressed-x-grps  = System
continuation = yes
constraint-algorithm = lincs
constraints = h-bonds
lincs-iter  = 1
lincs-order = 4
cutoff-scheme = Verlet
nstlist     = 10
rcoulomb    = 1.0
rvdw        = 1.0
coulombtype = PME
pme-order   = 4
fourierspacing = 0.16
tcoupl      = V-rescale
tc-grps     = Protein Non-Protein
tau-t       = 0.1 0.1
ref-t       = 300 300
pcoupl      = C-rescale
pcoupltype  = isotropic
tau-p       = 2.0
ref-p       = 1.0
compressibility = 4.5e-5
pbc         = xyz
DispCorr    = EnerPres
gen-vel     = no
