; Equilibrazione NVT, 100 ps, restrizioni posizionali sulla proteina
define      = -DPOSRES
integrator  = md
dt          = 0.002
nsteps      = 50000
nstenergy   = 500
nstlog      = 500
continuation = no
constraint-algorithm = lincs
constraints = h-bonds
lincs-iter  = 1
lincs-order = 4
cutoff-scheme = Verlet
nstlist     = 10
rcoulomb    = 1.0
rvdw        = 1.0
coulombtype = PME
pme-order   = 4
fourierspacing = 0.16
tcoupl      = V-rescale
tc-grps     = Protein Non-Protein
tau-t       = 0.1 0.1
ref-t       = 300 300
pcoupl      = no
pbc         = xyz
DispCorr    = EnerPres
gen-vel     = yes
gen-temp    = 300
gen-seed    = -1
