H2O
  600
    1H2O     OW    1   0.107   0.681   1.498 -0.1404 -0.1940 -0.5018
    1H2O     HW    2   0.055   0.756   1.455  1.4493  1.0206 -0.3887
    1H2O     HW    3   0.156   0.740   1.562 -1.1918  0.7060 -0.4795
    2H2O     OW    4   1.500   0.596   1.337  0.3888 -0.1157  0.1248
    2H2O     HW    5   1.514   0.642   1.249 -1.3546  0.6650  0.1976
    2H2O     HW    6   1.516   0.499   1.321  0.5564  0.0002 -0.4217
    3H2O     OW    7   0.350   0.232   0.510  0.1415  0.6186 -0.5104
    3H2O     HW    8   0.271   0.185   0.549  0.8516 -0.1059  0.0939
    3H2O     HW    9   0.306   0.276   0.432 -2.6240  0.2882  0.7679
    4H2O     OW   10   0.052   0.582   0.314 -1.0670 -0.1047  0.7724
    4H2O     HW   11   0.000   0.597   0.230  0.1396  1.6543  0.2785
    4H2O     HW   12  -0.006   0.522   0.370 -1.8367 -0.1660 -0.0755
    5H2O     OW   13   0.736   0.292   0.891  0.3125  0.6287 -0.0550
    5H2O     HW   14   0.738   0.233   0.972 -1.1632  0.4522 -0.1231
    5H2O     HW   15   0.675   0.248   0.825 -1.4321  1.8423  0.6764
    6H2O     OW   16   1.062   0.679   0.534 -0.6498  0.2034 -0.6194
    6H2O     HW   17   1.009   0.713   0.456  1.0333  0.5088 -1.7011
    6H2O     HW   18   1.042   0.749   0.602 -0.6874 -0.5829  0.2009
    7H2O     OW   19   0.905   1.569   0.080  0.1065 -0.4525 -0.3978
    7H2O     HW   20   0.987   1.516   0.103  0.6129  0.4511 -0.0748
    7H2O     HW   21   0.848   1.497   0.041 -0.3329  0.5609 -1.6729
    8H2O     OW   22   0.345   1.421   0.988 -0.1772  0.5908  0.6823
    8H2O     HW   23   0.268   1.448   0.930  0.3950  2.0891  0.5605
    8H2O     HW   24   0.302   1.371   1.063  0.9003 -0.4013  0.6709
    9H2O     OW   25   0.434   0.409   1.126 -0.1225  0.6414  0.0255
    9H2O     HW   26   0.446   0.372   1.218 -1.9384  0.3307  0.1774
    9H2O     HW   27   0.345   0.368   1.106 -0.1669  0.7982 -0.0992
   10H2O     OW   28   0.067   0.096   1.572 -0.3719  0.3886 -0.3051
   10H2O     HW   29   0.068   0.165   1.499  1.5186  0.6135 -0.1099
   10H2O     HW   30   0.056   0.011   1.520  0.9396 -0.9736  1.5142
   11H2O     OW   31   0.767   0.210   0.489  0.3754  0.2387 -0.2906
   11H2O     HW   32   0.718   0.207   0.577  1.7555 -0.7835  0.4831
   11H2O     HW   33   0.766   0.118   0.452 -0.8990  0.7007 -1.4881
   12H2O     OW   34   0.107   0.717   1.139  0.1432  0.2626  0.2024
   12H2O     HW   35   0.041   0.769   1.194 -1.0244 -2.0108  1.0667
   12H2O     HW   36   0.055   0.638   1.108 -0.6281  0.4178  1.0651
   13H2O     OW   37   1.523   1.116   0.215  0.2972  0.3413  0.1147
   13H2O     HW   38   1.523   1.065   0.129  0.7207  0.8233 -0.1712
   13H2O     HW   39   1.476   1.202   0.197 -0.0795  0.3627  1.1418
   14H2O     OW   40   0.834   1.729   1.658 -0.5451  0.3374  0.1900
   14H2O     HW   41   0.785   1.787   1.723 -1.7432  0.4081 -0.7403
   14H2O     HW   42   0.873   1.661   1.720 -1.0529  1.6702  2.0639
   15H2O     OW   43   1.760   1.658   0.701 -0.1849  0.6373  0.1444
   15H2O     HW   44   1.826   1.730   0.680  0.4061 -0.4301 -1.8162
   15H2O     HW   45   1.676   1.713   0.703 -0.5640  0.1435 -1.2295
   16H2O     OW   46   1.800   1.174   0.147 -0.1252 -0.1699 -0.1748
   16H2O     HW   47   1.711   1.155   0.190  0.2481 -0.2607  0.5734
   16H2O     HW   48   1.797   1.263   0.102 -0.5060 -1.4827 -2.9039
   17H2O     OW   49   0.135   0.472   1.685  0.2061 -0.0258 -0.2429
   17H2O     HW   50   0.038   0.449   1.683 -0.1683  1.4231  0.0994
   17H2O     HW   51   0.139   0.552   1.625  2.2365 -0.0662 -0.2410
   18H2O     OW   52   1.605   0.327   1.841 -0.1629 -0.2618  0.2399
   18H2O     HW   53   1.608   0.382   1.758  0.8876 -1.2004 -0.3786
   18H2O     HW   54   1.610   0.235   1.801 -0.8340 -0.2341  0.0808
   19H2O     OW   55   0.633   1.449   1.497  0.0821 -0.4425 -0.1593
   19H2O     HW   56   0.583   1.365   1.479 -0.9125  0.4193 -1.7211
   19H2O     HW   57   0.728   1.430   1.473  0.6155  2.1685 -0.4591
   20H2O     OW   58   1.288   1.296   1.679 -0.0075  0.3862 -0.2640
   20H2O     HW   59   1.298   1.197   1.672 -0.4665  0.4293 -1.8769
   20H2O     HW   60   1.192   1.311   1.699  0.3068  0.5633  1.2702
   21H2O     OW   61   0.129   0.090   0.644  0.6629  0.4386  0.2220
   21H2O     HW   62   0.077   0.107   0.561  0.8909  0.0519 -0.0022
   21H2O     HW   63   0.120   0.174   0.697  0.2197  1.6470 -1.7085
   22H2O     OW   64   1.316   0.688   1.524  0.0411  0.3837  0.2475
   22H2O     HW   65   1.391   0.653   1.467  0.8009  0.6707  1.0477
   22H2O     HW   66   1.239   0.711   1.465 -0.0910 -0.0923  0.2295
   23H2O     OW   67   1.452   0.687   0.331  0.6237 -0.6050  0.1015
   23H2O     HW   68   1.412   0.611   0.382 -2.1231 -0.2084 -1.2953
   23H2O     HW   69   1.371   0.722   0.285  0.6845 -0.3261  0.2095
   24H2O     OW   70   1.778   1.746   1.085  0.1413 -0.0309  0.2362
   24H2O     HW   71   1.771   1.828   1.028  0.9784 -1.6248 -2.3476
   24H2O     HW   72   1.703   1.692   1.047 -1.1690  2.3723 -0.8034
   25H2O     OW   73   0.337   1.163   0.829  0.7556 -0.2068 -0.2074
   25H2O     HW   74   0.363   1.247   0.877  2.2529 -0.5836 -0.3267
   25H2O     HW   75   0.388   1.174   0.744 -0.4575 -0.0532 -0.9515
   26H2O     OW   76   0.155   1.422   1.628 -0.4305 -0.3099 -0.0864
   26H2O     HW   77   0.125   1.444   1.721  2.3271  0.4283  0.7445
   26H2O     HW   78   0.224   1.493   1.614 -2.6026  2.2640  1.2579
   27H2O     OW   79   0.432   0.810   0.630 -0.7646 -0.1069 -0.4329
   27H2O     HW   80   0.365   0.778   0.563  2.2043  0.4356 -4.0195
   27H2O     HW   81   0.392   0.815   0.721 -0.6903 -0.5262 -0.3770
   28H2O     OW   82   1.620   0.364   1.264 -0.4946  0.0269 -0.0132
   28H2O     HW   83   1.707   0.330   1.300 -1.6722 -3.4711 -0.1515
   28H2O     HW   84   1.587   0.280   1.222  1.6376 -1.1107  0.4186
   29H2O     OW   85   0.101   1.444   0.850 -0.4964 -0.1900  0.0170
   29H2O     HW   86   0.038   1.522   0.844  0.4683  0.5516 -0.7814
   29H2O     HW   87   0.047   1.363   0.872  0.0395  0.2285  3.4480
   30H2O     OW   88   1.058   0.903   1.728  0.5000 -0.7918  0.3454
   30H2O     HW   89   0.980   0.886   1.669 -0.1610  0.5673  0.7964
   30H2O     HW   90   1.075   0.835   1.800  0.7687  0.3684  1.4134
   31H2O     OW   91   0.848   0.663   0.354 -0.1410 -0.3157 -0.4621
   31H2O     HW   92   0.885   0.600   0.422 -0.0522  0.9795  0.7110
   31H2O     HW   93   0.750   0.654   0.335 -0.4532 -0.4439  1.1219
   32H2O     OW   94   0.292   1.025   1.069 -0.2754 -0.2974  0.8428
   32H2O     HW   95   0.305   1.105   1.128 -2.0688  1.8064 -1.3806
   32H2O     HW   96   0.312   1.062   0.978  1.3310 -2.3653  0.2892
   33H2O     OW   97   1.224   0.836   0.300 -0.0871 -0.4311 -0.5110
   33H2O     HW   98   1.173   0.918   0.325  1.4269 -0.1035  1.7445
   33H2O     HW   99   1.169   0.788   0.231 -0.1467  1.4378 -1.8353
   34H2O     OW  100   0.675   0.291   0.168 -1.0071  0.0784 -0.0456
   34H2O     HW  101   0.599   0.305   0.105 -1.1957 -2.9782 -0.6690
   34H2O     HW  102   0.734   0.371   0.179  0.8579 -1.3141  0.6537
   35H2O     OW  103   0.624   0.634   0.244 -0.0636  0.4259  0.0983
   35H2O     HW  104   0.581   0.547   0.271  1.5575 -0.2786  0.5609
   35H2O     HW  105   0.549   0.697   0.225 -0.0401  0.9319  1.5739
   36H2O     OW  106   0.553   0.224   0.689  0.1880 -0.0531 -0.0770
   36H2O     HW  107   0.475   0.258   0.636  0.1423  0.0809  0.0762
   36H2O     HW  108   0.521   0.134   0.719 -1.1755  0.9876  1.7935
   37H2O     OW  109   0.292   0.778   0.857  0.3346  0.0651 -0.3169
   37H2O     HW  110   0.207   0.812   0.816  0.1454  0.4831  0.4055
   37H2O     HW  111   0.261   0.696   0.904  2.3104  0.7400  2.4457
   38H2O     OW  112   0.618   0.051  -0.005  0.4447  0.7240  0.2799
   38H2O     HW  113   0.534   0.053   0.050 -0.7600  1.5536 -1.4773
   38H2O     HW  114   0.642   0.148  -0.008 -0.9245  1.1210  1.1497
   39H2O     OW  115   1.089   1.616   1.395 -0.1019  0.1433  0.0057
   39H2O     HW  116   1.068   1.706   1.435 -0.5927  0.0450 -0.0276
   39H2O     HW  117   1.186   1.631   1.377  0.3543 -1.4393  1.0086
   40H2O     OW  118   1.566   0.292   0.308 -0.2373 -0.3896 -0.3420
   40H2O     HW  119   1.577   0.380   0.355  1.7697 -1.0101  0.4421
   40H2O     HW  120   1.600   0.307   0.215  1.3210 -1.7707 -0.0433
   41H2O     OW  121   0.805   1.352   0.361 -0.3028 -0.7625 -0.0937
   41H2O     HW  122   0.721   1.368   0.310 -0.6772  0.6472  0.8921
   41H2O     HW  123   0.792   1.270   0.417  2.9411 -1.7428 -0.5777
   42H2O     OW  124   0.651   0.539   1.249 -0.3274  0.2444 -0.0374
   42H2O     HW  125   0.717   0.597   1.202 -0.7979 -0.3607 -1.5029
   42H2O     HW  126   0.583   0.527   1.177 -0.4896  0.7041  0.0325
   43H2O     OW  127   1.823   1.462   1.267  0.0234  0.2054 -0.2135
   43H2O     HW  128   1.733   1.426   1.292 -0.2601  1.1569  0.2109
   43H2O     HW  129   1.833   1.559   1.290  2.0231  0.0896 -0.4615
   44H2O     OW  130   1.083   1.262   0.552  0.1801  0.2148  0.2965
   44H2O     HW  131   1.042   1.344   0.511 -0.9655  0.5354  1.9834
   44H2O     HW  132   1.170   1.249   0.504 -0.8917 -3.2454 -1.0208
   45H2O     OW  133   1.780   0.544   0.748 -0.3318 -0.2355 -0.0009
   45H2O     HW  134   1.698   0.568   0.800  1.5216  1.1430  2.4895
   45H2O     HW  135   1.836   0.627   0.752  0.2459 -0.6410  0.4105
   46H2O     OW  136  -0.006   1.710   1.359 -0.1473 -0.5174 -0.3370
   46H2O     HW  137   0.093   1.718   1.346  0.2764 -0.9193  2.1059
   46H2O     HW  138  -0.043   1.727   1.268  1.8448  1.7031 -0.8270
   47H2O     OW  139   0.271   0.324   0.257 -0.6648  0.0540  0.2111
   47H2O     HW  140   0.196   0.384   0.285  0.1078  1.3570 -0.4034
   47H2O     HW  141   0.318   0.394   0.203 -0.7762  0.5524  0.7507
   48H2O     OW  142   0.582   1.358   1.188  0.2599  0.2548 -0.1912
   48H2O     HW  143   0.564   1.301   1.108  0.1321  1.3792 -0.9884
   48H2O     HW  144   0.518   1.321   1.256 -0.3211 -0.8198 -1.2861
   49H2O     OW  145   0.763   0.031   0.268 -0.3902  0.4828  0.3288
   49H2O     HW  146   0.740   0.119   0.226 -0.5948  0.7796  1.0465
   49H2O     HW  147   0.834  -0.020   0.220  0.5984  1.4165  0.7514
   50H2O     OW  148   0.798   1.200   1.198 -0.2282  0.1374 -0.3492
   50H2O     HW  149   0.719   1.175   1.142 -0.2374 -1.2045  0.2151
   50H2O     HW  150   0.765   1.278   1.251 -2.1595 -0.4477 -0.5990
   51H2O     OW  151   0.978   1.714   1.118 -0.2429 -0.2428 -0.2742
   51H2O     HW  152   1.001   1.654   1.194 -0.8112  0.9529  0.8738
   51H2O     HW  153   0.921   1.661   1.055  0.1073  1.8046 -2.4856
   52H2O     OW  154   1.319  -0.004   0.569 -0.1281 -0.2247  0.2918
   52H2O     HW  155   1.224  -0.034   0.580 -0.7185  1.4534  0.0697
   52H2O     HW  156   1.304   0.074   0.509  1.8073  0.6388  0.8419
   53H2O     OW  157   1.226   0.360   0.434  0.1897  0.4329  0.4175
   53H2O     HW  158   1.274   0.439   0.471  0.4187  0.4643  0.0612
   53H2O     HW  159   1.139   0.355   0.483 -0.5980  4.7065 -0.2135
   54H2O     OW  160   0.980   0.346   0.556  0.3173  0.2824  0.1276
   54H2O     HW  161   0.893   0.305   0.530 -0.8262  0.7639  2.8291
   54H2O     HW  162   0.953   0.393   0.640 -0.9397  0.2228 -0.2328
   55H2O     OW  163   1.145   0.195  -0.016 -0.0029 -0.3254 -0.5029
   55H2O     HW  164   1.117   0.114   0.036  2.7266 -0.8809  0.2382
   55H2O     HW  165   1.165   0.264   0.053 -1.2836  2.4031 -2.6545
   56H2O     OW  166   0.642   0.584   0.908  0.0997  0.2264  0.0892
   56H2O     HW  167   0.646   0.571   0.809 -0.4205 -0.7505  0.1813
   56H2O     HW  168   0.627   0.490   0.939 -2.0304  0.8180  1.0296
   57H2O     OW  169   0.578   0.329   1.694  0.0813  0.1105  0.6830
   57H2O     HW  170   0.573   0.429   1.684  0.8091 -0.0977 -3.2957
   57H2O     HW  171   0.483   0.314   1.668  0.2588 -1.2347  0.7563
   58H2O     OW  172   1.796   1.424   0.053  0.2199  0.0495  0.0187
   58H2O     HW  173   1.803   1.435   0.152 -0.1000 -1.0804  0.1837
   58H2O     HW  174   1.726   1.491   0.025 -0.3394  0.2079  1.6763
   59H2O     OW  175   0.871   0.345   1.631  0.1821  0.0096 -0.1687
   59H2O     HW  176   0.785   0.296   1.649 -0.8576  1.6158 -0.5288
   59H2O     HW  177   0.874   0.342   1.531 -0.9913 -1.1443 -0.1953
   60H2O     OW  178   0.021   1.167   0.836 -0.2033  0.5984  0.4900
   60H2O     HW  179   0.115   1.158   0.804 -1.1420  0.0881 -2.4578
   60H2O     HW  180   0.005   1.108   0.916 -2.7623 -0.6210 -0.8138
   61H2O     OW  181   1.327   0.576   0.546 -0.7713  0.1147  0.1871
   61H2O     HW  182   1.369   0.653   0.594 -1.8610  0.3259  0.8235
   61H2O     HW  183   1.236   0.603   0.516 -0.9476 -0.2372  0.3976
   62H2O     OW  184   0.868   0.872   1.522  0.4653 -0.2553 -0.8676
   62H2O     HW  185   0.824   0.863   1.432  0.7679  2.9938 -1.4913
   62H2O     HW  186   0.846   0.967   1.542 -0.1405 -0.7964  1.1981
   63H2O     OW  187   0.895   0.180   1.147 -0.0025 -0.5002 -0.0338
   63H2O     HW  188   0.947   0.097   1.168 -0.6063 -1.0844 -0.7968
   63H2O     HW  189   0.806   0.140   1.171 -0.2552  1.4834  2.8338
   64H2O     OW  190   1.691   0.161   0.945  0.2652  0.5119 -0.3307
   64H2O     HW  191   1.628   0.115   0.883 -0.5690 -2.0196  2.1684
   64H2O     HW  192   1.732   0.238   0.896 -0.1817 -0.0063 -1.5335
   65H2O     OW  193   1.353   1.649   0.219  0.4094 -0.1333  0.3657
   65H2O     HW  194   1.362   1.747   0.240  1.8502  0.3508 -2.1601
   65H2O     HW  195   1.323   1.661   0.124  0.4196 -0.4839  0.3184
   66H2O     OW  196   0.727   0.912   1.271 -0.1193 -0.1704  0.2218
   66H2O     HW  197   0.731   1.011   1.256 -0.1099 -0.0577  0.9439
   66H2O     HW  198   0.738   0.866   1.183  0.3456  0.6926 -0.1878
   67H2O     OW  199   0.709   1.688   1.411 -0.1508 -0.3348 -0.1162
   67H2O     HW  200   0.653   1.606   1.423 -0.2994 -0.2090  0.0446
   67H2O     HW  201   0.753   1.701   1.500  0.6308 -1.0403 -0.3852
   68H2O     OW  202   0.886   1.405   1.361 -0.0036 -0.3448  0.1069
   68H2O     HW  203   0.949   1.480   1.376 -0.3866 -0.1939  1.0021
   68H2O     HW  204   0.927   1.314   1.355 -1.5534 -1.0232 -0.9765
   69H2O     OW  205   0.611   1.126   1.032 -0.1205 -0.5013 -0.3921
   69H2O     HW  206   0.557   1.044   1.012 -1.5776  0.5984 -1.1847
   69H2O     HW  207   0.657   1.140   0.943  0.7084  0.3932  0.1595
   70H2O     OW  208   0.486   1.612   1.198 -0.6817  0.1190  1.0732
   70H2O     HW  209   0.568   1.651   1.238  0.0951  1.0868 -1.2653
   70H2O     HW  210   0.514   1.519   1.174  0.2000  0.1263  2.0381
   71H2O     OW  211   1.442   0.182   1.479  0.1719  0.9428 -0.3115
   71H2O     HW  212   1.469   0.201   1.385 -2.1075 -0.4085 -1.3077
   71H2O     HW  213   1.367   0.242   1.509  1.9664  3.7799 -1.0930
   72H2O     OW  214   1.689   0.687   0.138  0.1204 -0.0934  0.4570
   72H2O     HW  215   1.620   0.681   0.210 -1.0553  0.6245 -0.5592
   72H2O     HW  216   1.640   0.705   0.052 -0.1689 -0.9850  0.4161
   73H2O     OW  217   1.718   0.141   0.498  0.0421 -0.4948 -0.1885
   73H2O     HW  218   1.673   0.212   0.445 -2.4818 -0.8884  1.2524
   73H2O     HW  219   1.645   0.081   0.531 -0.6914 -0.6704 -2.0312
   74H2O     OW  220   1.692   1.351   1.545  0.1867 -0.5628 -0.7570
   74H2O     HW  221   1.662   1.261   1.576  0.0947 -0.4313 -0.4591
   74H2O     HW  222   1.782   1.361   1.587 -0.4623 -2.5653  1.2828
   75H2O     OW  223   0.333   1.663   1.632 -0.6728  0.4503  0.1624
   75H2O     HW  224   0.412   1.623   1.679 -0.2676 -0.1852 -1.0363
   75H2O     HW  225   0.287   1.713   1.705  2.4518  2.7262  0.7881
   76H2O     OW  226   1.495   0.924   1.292 -0.4777 -0.2345  0.5611
   76H2O     HW  227   1.399   0.934   1.319  0.3401  2.3667  3.1148
   76H2O     HW  228   1.511   1.020   1.271 -0.3102  0.0356  1.8021
   77H2O     OW  229   0.807   1.765   0.732 -0.1062  0.2366 -0.2055
   77H2O     HW  230   0.770   1.789   0.822  1.5824 -0.8033  0.8283
   77H2O     HW  231   0.730   1.737   0.675  1.0289  1.2100 -2.3561
   78H2O     OW  232   0.951   0.867   0.753  0.3337 -0.3306  0.1501
   78H2O     HW  233   0.855   0.892   0.756  0.2623 -0.4233 -0.8557
   78H2O     HW  234   0.984   0.959   0.774  0.1844 -0.1733 -0.2849
   79H2O     OW  235   0.044   1.444   0.320  0.1992  0.1111  0.4541
   79H2O     HW  236   0.124   1.473   0.371  0.7187  0.2927 -0.4530
   79H2O     HW  237  -0.034   1.451   0.383 -0.9150 -0.3452 -0.8113
   80H2O     OW  238   1.064   1.480   1.652  0.0703  0.1729  0.4232
   80H2O     HW  239   1.064   1.511   1.557  0.7577  0.8397  0.6287
   80H2O     HW  240   0.988   1.417   1.665 -0.0484  0.1931 -0.1301
   81H2O     OW  241   0.244   1.640   0.631 -0.3019 -0.2898 -0.7281
   81H2O     HW  242   0.207   1.732   0.628 -1.0266 -0.4686  1.2841
   81H2O     HW  243   0.170   1.593   0.678  0.6767 -1.4594 -0.2725
   82H2O     OW  244   1.289   1.751   1.074  0.7587 -0.7254  0.9202
   82H2O     HW  245   1.222   1.802   1.128  0.5469 -2.1526  2.0518
   82H2O     HW  246   1.236   1.730   0.991  1.9394 -0.2791  0.0217
   83H2O     OW  247   0.175   0.517   1.318  0.0248  0.1248 -0.3607
   83H2O     HW  248   0.148   0.566   1.401  4.3015  0.4952  1.0664
   83H2O     HW  249   0.198   0.596   1.260  0.2552 -0.3748 -0.9604
   84H2O     OW  250   1.254   0.750   1.031  0.4141  0.2025  0.4312
   84H2O     HW  251   1.216   0.840   1.053  1.5857  1.0547 -0.8988
   84H2O     HW  252   1.180   0.700   0.985  0.7167 -0.2164  0.3872
   85H2O     OW  253   1.202   0.399   1.315  0.3084  0.0009  0.3562
   85H2O     HW  254   1.215   0.411   1.413  0.3059  0.8055  0.2658
   85H2O     HW  255   1.230   0.480   1.264 -0.8291  1.3969  1.8562
   86H2O     OW  256   0.274   1.785   1.050 -0.3751  0.4257 -0.7942
   86H2O     HW  257   0.179   1.752   1.048 -0.4377  0.5729 -3.9161
   86H2O     HW  258   0.331   1.724   1.105 -2.5336 -1.4524 -0.4886
   87H2O     OW  259   0.157   1.120   0.365  0.4709  0.5781 -0.0457
   87H2O     HW  260   0.113   1.134   0.276  1.6815  0.7500 -0.6262
   87H2O     HW  261   0.149   1.209   0.411 -0.4452 -0.3029  1.6143
   88H2O     OW  262   0.762   1.118   0.467 -0.1301  0.5256  0.2906
   88H2O     HW  263   0.729   1.078   0.382 -1.6272  2.6732 -0.2328
   88H2O     HW  264   0.749   1.041   0.528  1.4846  1.3631  1.7871
   89H2O     OW  265   0.543   1.409   0.311  0.1437 -0.2274  0.5447
   89H2O     HW  266   0.559   1.508   0.317 -0.1806 -0.2552  2.9539
   89H2O     HW  267   0.453   1.395   0.353 -0.8838 -0.1058 -1.4874
   90H2O     OW  268   0.206   1.210   1.462  0.1334 -0.1758 -0.5742
   90H2O     HW  269   0.127   1.150   1.473  0.5435 -1.0254 -1.9874
   90H2O     HW  270   0.181   1.292   1.515 -0.8821 -0.6621 -0.2645
   91H2O     OW  271   1.220   0.925   1.336 -0.0069  0.0626 -0.2404
   91H2O     HW  272   1.169   0.970   1.262 -1.2437  0.6776  0.9390
   91H2O     HW  273   1.164   0.847   1.367 -1.4765 -0.1061 -2.9907
   92H2O     OW  274   0.300   0.276   1.599  0.2504  0.1817  0.0064
   92H2O     HW  275   0.222   0.322   1.644 -0.7341 -0.3049 -1.1524
   92H2O     HW  276   0.264   0.185   1.580 -1.7790  1.2803 -2.0294
   93H2O     OW  277   0.584   1.581   1.742  0.6051  0.2631 -0.6215
   93H2O     HW  278   0.591   1.536   1.653 -2.9080 -1.3158 -0.2685
   93H2O     HW  279   0.608   1.678   1.742  0.4683  0.3831  2.1032
   94H2O     OW  280   1.487   0.175   1.122  0.1548 -0.6613  0.4958
   94H2O     HW  281   1.402   0.133   1.091  0.8018  0.3100 -3.0939
   94H2O     HW  282   1.562   0.157   1.058 -1.5778 -0.1466 -1.8021
   95H2O     OW  283   0.479   1.738   0.774  0.4884 -0.4948 -0.1329
   95H2O     HW  284   0.393   1.693   0.797  0.3115 -0.0208  0.1450
   95H2O     HW  285   0.525   1.749   0.862  1.1863  0.9544 -0.6537
   96H2O     OW  286   0.235   1.298   1.201 -0.2214 -0.1479 -0.1338
   96H2O     HW  287   0.236   1.260   1.294  1.8723  1.9075  0.7990
   96H2O     HW  288   0.161   1.365   1.207 -0.4681 -0.3433 -0.9488
   97H2O     OW  289   1.529   0.066   0.738  0.1764  0.1546 -0.3357
   97H2O     HW  290   1.458   0.024   0.681 -0.5749  0.3182  0.4543
   97H2O     HW  291   1.502   0.162   0.728 -1.3476 -0.3873 -1.8589
   98H2O     OW  292   0.488   1.232   1.418  0.2198  0.2248 -0.1277
   98H2O     HW  293   0.389   1.229   1.433  0.3776 -1.2251  0.7710
   98H2O     HW  294   0.524   1.142   1.442 -0.7262 -0.9291 -2.6981
   99H2O     OW  295   1.311   1.298   0.408 -0.5825  0.2200  0.3295
   99H2O     HW  296   1.410   1.297   0.425 -0.4204 -0.9706 -0.5426
   99H2O     HW  297   1.297   1.362   0.334 -0.6199  0.1510  0.2767
  100H2O     OW  298   0.107   0.313   0.811  0.0219 -1.2990  0.1494
  100H2O     HW  299   0.201   0.347   0.814  0.0558 -1.0682 -2.0024
  100H2O     HW  300   0.059   0.401   0.818  1.5858 -0.2829 -1.2231
  101H2O     OW  301   0.390   0.085   0.154  0.2471 -0.3234 -0.1958
  101H2O     HW  302   0.303   0.063   0.110 -0.5492  2.2962 -0.1105
  101H2O     HW  303   0.354   0.168   0.196 -0.6689 -0.5643 -0.4933
  102H2O     OW  304   1.417   0.799   0.745 -0.5209 -0.1712 -0.8277
  102H2O     HW  305   1.336   0.828   0.797 -0.0282  0.1338 -0.2246
  102H2O     HW  306   1.459   0.884   0.712  3.5680 -1.6935 -0.1188
  103H2O     OW  307   0.395   0.469   0.041  0.1385  0.0544 -0.1701
  103H2O     HW  308   0.305   0.459  -0.001  0.0278  2.2461 -0.5767
  103H2O     HW  309   0.437   0.534  -0.022 -1.9339  0.9351 -0.7375
  104H2O     OW  310   0.742   0.735   0.015  0.4451  0.2655  0.1522
  104H2O     HW  311   0.712   0.713   0.107  0.5432 -0.1769  0.0792
  104H2O     HW  312   0.716   0.829  -0.008 -0.6360 -0.0444  0.0302
  105H2O     OW  313   1.546   1.629   0.988  0.3144 -0.1403  0.0263
  105H2O     HW  314   1.539   1.539   0.944  0.0330  0.6128 -1.5425
  105H2O     HW  315   1.460   1.660   1.028  0.3212 -2.4322  2.0703
  106H2O     OW  316   1.081   1.214   1.381  0.2361  0.3190 -0.2271
  106H2O     HW  317   1.170   1.259   1.386  0.1511  0.4792 -0.1436
  106H2O     HW  318   1.074   1.149   1.305 -0.4085 -0.3340  0.3724
  107H2O     OW  319   1.684   0.467   0.499  0.4370  0.9850  0.4247
  107H2O     HW  320   1.736   0.519   0.567  0.5586  1.3698  0.0403
  107H2O     HW  321   1.609   0.429   0.554  0.4793 -0.4095 -0.4421
  108H2O     OW  322   1.007   1.132   0.790  0.1140 -0.1657  0.4278
  108H2O     HW  323   1.031   1.172   0.701 -0.9327 -2.5545 -1.0393
  108H2O     HW  324   1.086   1.142   0.850  1.8315 -3.0501 -1.0903
  109H2O     OW  325   1.010   1.817   0.131  0.1486 -0.1233 -0.2139
  109H2O     HW  326   1.040   1.831   0.225 -1.4892 -1.9617  0.6553
  109H2O     HW  327   0.980   1.721   0.134  1.1973 -0.4255  1.4947
  110H2O     OW  328   0.651   1.770   0.978  0.2101 -0.0728  0.3213
  110H2O     HW  329   0.643   1.803   1.072  0.2666  0.9841 -0.0235
  110H2O     HW  330   0.646   1.670   0.975 -1.8451 -0.1210 -4.3841
  111H2O     OW  331   1.506   1.202   1.250 -0.5694 -0.0497  0.1716
  111H2O     HW  332   1.443   1.261   1.300 -1.1133  0.0417 -0.6048
  111H2O     HW  333   1.513   1.238   1.157  0.9815 -0.0310  0.2734
  112H2O     OW  334   0.275   1.683   1.364 -0.2200  0.2355 -0.0379
  112H2O     HW  335   0.361   1.675   1.312  0.3566 -2.4039  1.1406
  112H2O     HW  336   0.292   1.679   1.462 -1.8727 -2.2519  0.2288
  113H2O     OW  337   1.158   0.119   1.304  0.0005 -0.1025  0.3617
  113H2O     HW  338   1.148   0.096   1.401  1.7569 -0.8865  0.3886
  113H2O     HW  339   1.166   0.218   1.305  1.0847 -0.1690  2.1418
  114H2O     OW  340   1.344   1.691   1.400  0.4487  0.1822 -0.3360
  114H2O     HW  341   1.344   1.769   1.338 -1.7239  0.3701 -0.1581
  114H2O     HW  342   1.438   1.661   1.418  0.1169 -0.0445  1.1346
  115H2O     OW  343   1.040   1.131   0.058  0.2889 -0.3680  0.3251
  115H2O     HW  344   1.034   1.101   0.153 -0.6250 -0.1147  0.3561
  115H2O     HW  345   1.025   1.049   0.002  0.9146 -0.2244 -0.0646
  116H2O     OW  346   0.896   1.486   0.983  0.0844 -0.4988 -0.0851
  116H2O     HW  347   0.894   1.396   1.025 -1.5549  0.4115  1.9625
  116H2O     HW  348   0.808   1.489   0.936 -0.5851 -0.6603  1.1247
  117H2O     OW  349   0.488   0.704   1.407 -0.1078  0.2573  0.0537
  117H2O     HW  350   0.551   0.637   1.367 -3.2026 -3.0250  0.1033
  117H2O     HW  351   0.444   0.732   1.321  0.4142 -0.6195 -0.5187
  118H2O     OW  352   0.414   1.023   0.372  0.1658 -0.1606  0.5737
  118H2O     HW  353   0.405   0.969   0.456  0.1058 -2.3027 -0.7100
  118H2O     HW  354   0.323   1.057   0.350  1.1920  1.4203 -1.6302
  119H2O     OW  355   1.685   1.090   1.673  0.8153 -0.2647  0.2616
  119H2O     HW  356   1.754   1.018   1.677 -0.1990 -1.2094  1.3361
  119H2O     HW  357   1.600   1.054   1.711  0.7263 -1.3034 -0.8519
  120H2O     OW  358   0.803   0.703   1.101 -0.2156  0.1366 -0.1330
  120H2O     HW  359   0.887   0.662   1.064 -0.2163  0.6580 -0.7241
  120H2O     HW  360   0.742   0.681   1.025 -0.1957 -0.3645 -0.0084
  121H2O     OW  361   1.559   1.587   1.769  0.5702  0.1828 -0.8682
  121H2O     HW  362   1.478   1.639   1.796  1.7056  1.7589 -0.3555
  121H2O     HW  363   1.560   1.595   1.670  2.3271 -1.1818 -1.0170
  122H2O     OW  364   0.933   0.518   1.816 -0.3659 -0.5017  0.1405
  122H2O     HW  365   0.922   0.446   1.748  0.6099 -1.4872  0.9912
  122H2O     HW  366   0.855   0.578   1.800  0.1510 -0.0661 -0.8606
  123H2O     OW  367   0.569   1.344   0.056 -0.2315  0.3295  0.0075
  123H2O     HW  368   0.573   1.440   0.027  1.9598  0.6010  1.0366
  123H2O     HW  369   0.562   1.354   0.156 -1.9591 -0.2176 -0.0165
  124H2O     OW  370   1.273   1.647   1.724  0.3239  0.6102 -0.4547
  124H2O     HW  371   1.198   1.582   1.711 -0.3746  1.2613  0.2432
  124H2O     HW  372   1.271   1.709   1.645  1.2771 -1.6847 -2.4047
  125H2O     OW  373   1.596   0.907   0.392 -0.0524  0.1803 -0.3034
  125H2O     HW  374   1.535   0.973   0.348 -1.6555 -0.1070  1.3394
  125H2O     HW  375   1.557   0.815   0.391  1.2935 -0.4352 -2.8544
  126H2O     OW  376   0.246   0.747   0.457  0.1838  0.1731  0.7628
  126H2O     HW  377   0.169   0.808   0.476 -1.0777 -0.5721 -1.6274
  126H2O     HW  378   0.199   0.675   0.406 -2.3873  1.7203  0.7481
  127H2O     OW  379   1.051   1.699   0.589 -0.0528 -0.2649  0.3924
  127H2O     HW  380   0.966   1.712   0.640 -0.7311 -3.0387  0.1241
  127H2O     HW  381   1.028   1.621   0.531 -0.0882  0.1596 -0.1706
  128H2O     OW  382   1.739   1.732   0.126  0.7109  0.4493  0.2978
  128H2O     HW  383   1.676   1.692   0.059  1.1683 -0.7200  0.5286
  128H2O     HW  384   1.688   1.756   0.209  0.5733 -2.6277  1.2278
  129H2O     OW  385   1.080   1.072   1.158  0.8536 -0.5225  0.1001
  129H2O     HW  386   0.986   1.103   1.169  0.8450 -0.1394 -1.0444
  129H2O     HW  387   1.124   1.110   1.077 -0.2860 -0.6829 -0.6174
  130H2O     OW  388   1.350   0.119   0.262 -0.4488 -0.1943  0.8979
  130H2O     HW  389   1.431   0.178   0.260 -2.2667  2.4663  0.2406
  130H2O     HW  390   1.274   0.183   0.272 -1.7764 -1.9577  3.0160
  131H2O     OW  391   0.846   1.144   1.536 -0.5778 -0.1323 -0.3517
  131H2O     HW  392   0.865   1.195   1.619  4.7062  0.3038 -1.4234
  131H2O     HW  393   0.924   1.179   1.483 -0.6321 -0.1492 -0.4425
  132H2O     OW  394   1.494   1.033   0.649 -0.0322 -0.1091 -0.2862
  132H2O     HW  395   1.539   1.118   0.676 -1.6856  0.2389  1.6554
  132H2O     HW  396   1.529   1.025   0.556  0.7364  0.3638 -0.0463
  133H2O     OW  397   0.864   0.364   1.349  0.6118 -0.2644  0.0941
  133H2O     HW  398   0.893   0.310   1.270 -1.2056  0.0264 -0.8159
  133H2O     HW  399   0.783   0.413   1.319 -0.6186 -3.3675 -2.1651
  134H2O     OW  400   0.371   0.788   1.157  0.3067 -0.3085  0.5712
  134H2O     HW  401   0.372   0.878   1.114  0.0598  0.2157  1.6183
  134H2O     HW  402   0.273   0.771   1.162  0.1727  0.6117  1.6478
  135H2O     OW  403   1.685   0.892   0.921 -0.4387  0.3013 -0.1826
  135H2O     HW  404   1.623   0.831   0.969  1.2816  0.4281  2.4082
  135H2O     HW  405   1.754   0.909   0.991  0.4984 -1.4112 -0.6398
  136H2O     OW  406   1.015   0.673   0.929 -0.1286  0.2827 -0.5819
  136H2O     HW  407   0.983   0.592   0.881 -0.1799  0.2315 -0.4592
  136H2O     HW  408   1.019   0.742   0.856 -0.3472  0.6070 -0.2904
  137H2O     OW  409   0.052   0.806   0.747  0.2256 -0.1001 -0.0305
  137H2O     HW  410  -0.018   0.856   0.797 -1.7074 -2.2217 -0.4296
  137H2O     HW  411   0.044   0.847   0.656  1.7010 -2.5010 -1.3650
  138H2O     OW  412   1.514   0.730   1.097  0.0705 -0.7419  0.1841
  138H2O     HW  413   1.501   0.806   1.161  0.8544 -0.6785  0.2709
  138H2O     HW  414   1.421   0.725   1.061 -0.9284 -1.5627  2.6749
  139H2O     OW  415   1.455   1.366   0.107  0.3900  0.0128 -0.0984
  139H2O     HW  416   1.501   1.455   0.099  0.2705  0.0040 -1.0507
  139H2O     HW  417   1.407   1.351   0.020  0.2072  0.1852 -0.0280
  140H2O     OW  418   1.506   1.335   1.004 -0.6157  0.5627  0.1376
  140H2O     HW  419   1.416   1.379   1.013 -0.6746  0.9758 -2.0121
  140H2O     HW  420   1.504   1.276   0.923 -0.0192  2.0972 -1.0409
  141H2O     OW  421   0.683   0.936   0.680  0.0843  0.7173 -0.1685
  141H2O     HW  422   0.648   0.937   0.773 -0.0287  0.1502 -0.2004
  141H2O     HW  423   0.609   0.879   0.644 -1.0725 -0.7155  3.9134
  142H2O     OW  424   1.536   0.585   0.828 -0.0231 -0.0193  0.9531
  142H2O     HW  425   1.492   0.668   0.793 -0.8897  0.6838  3.4518
  142H2O     HW  426   1.487   0.566   0.913  0.0770  2.5216  1.6712
  143H2O     OW  427   0.576   0.865   0.923  0.3265  0.2990  0.3731
  143H2O     HW  428   0.604   0.770   0.925  0.3367  0.1501 -2.5017
  143H2O     HW  429   0.476   0.861   0.918  0.2145  0.3955  2.0476
  144H2O     OW  430   0.545   0.983   1.474 -0.0527  0.5217  0.3191
  144H2O     HW  431   0.474   0.913   1.487 -0.2394  1.0865  3.0413
  144H2O     HW  432   0.593   0.931   1.404  0.3152  0.9834  0.2254
  145H2O     OW  433   0.360   0.450   0.819 -0.0145 -0.6745  0.4850
  145H2O     HW  434   0.396   0.500   0.741 -0.0086 -1.3578  0.0436
  145H2O     HW  435   0.424   0.469   0.893 -0.5200  0.4164  0.6645
  146H2O     OW  436   0.936   0.436   0.808 -0.1021 -0.6407 -0.3905
  146H2O     HW  437   1.003   0.394   0.869  1.4046 -0.5457 -1.8939
  146H2O     HW  438   0.847   0.396   0.830  0.3660 -1.2876  0.3677
  147H2O     OW  439   0.022   1.017   1.127 -0.0585 -0.5091 -0.6720
  147H2O     HW  440  -0.004   1.083   1.197 -1.6876  0.0945 -1.7968
  147H2O     HW  441   0.121   1.009   1.120 -0.0482  0.7273 -2.5985
  148H2O     OW  442   1.734   1.106   1.396 -0.3501  0.2104 -0.3240
  148H2O     HW  443   1.661   1.162   1.357 -2.7522  0.4646  3.9900
  148H2O     HW  444   1.718   1.116   1.494 -0.4271 -0.7508 -0.2308
  149H2O     OW  445   1.230   1.416   1.040 -0.1392 -0.3651 -0.8399
  149H2O     HW  446   1.214   1.476   0.962 -1.5607 -0.8021 -0.9050
  149H2O     HW  447   1.221   1.475   1.120 -0.4095 -2.3257  0.6623
  150H2O     OW  448   0.609   1.495   0.916  0.3804 -0.5556 -0.4731
  150H2O     HW  449   0.611   1.451   0.826 -1.4112 -0.7644 -0.4428
  150H2O     HW  450   0.520   1.468   0.953  0.2144  1.1150  0.4223
  151H2O     OW  451   0.682   1.031   0.208 -0.4271 -0.2462 -0.6322
  151H2O     HW  452   0.608   0.966   0.229  0.5213 -0.7438  1.3887
  151H2O     HW  453   0.673   1.047   0.110  0.2972  0.1452 -0.6447
  152H2O     OW  454   0.408   1.118  -0.020 -0.7656 -0.2340  0.0517
  152H2O     HW  455   0.465   1.200  -0.015 -1.5691  0.3229  0.2316
  152H2O     HW  456   0.356   1.117   0.065  1.1344 -1.5736  1.2664
  153H2O     OW  457   0.295   1.404   0.500 -0.0528  0.9401  0.2814
  153H2O     HW  458   0.264   1.485   0.550  1.4144  2.3094 -0.9155
  153H2O     HW  459   0.357   1.348   0.555 -2.1252 -0.6385  1.1506
  154H2O     OW  460   1.041   1.044   0.343  0.0737 -0.3031 -0.0540
  154H2O     HW  461   1.075   1.082   0.429 -0.3169  0.0342 -0.0477
  154H2O     HW  462   0.942   1.052   0.354  0.1152  0.6306 -0.2376
  155H2O     OW  463   0.634   1.662   0.552 -0.2111 -0.6793  0.2399
  155H2O     HW  464   0.561   1.683   0.618  0.5071  0.3430  0.7490
  155H2O     HW  465   0.596   1.675   0.461  1.0464 -2.2250 -0.5563
  156H2O     OW  466   0.205   0.238   1.076 -0.4272  0.1584  0.8122
  156H2O     HW  467   0.237   0.143   1.070 -0.6589  0.1690 -1.6496
  156H2O     HW  468   0.151   0.257   0.994  0.9049 -2.1461 -0.7128
  157H2O     OW  469   1.680   1.456   0.518  0.2873  0.0079 -0.4676
  157H2O     HW  470   1.599   1.508   0.489  1.4745  0.2529 -3.6545
  157H2O     HW  471   1.713   1.510   0.596  2.8692 -1.6785 -0.3030
  158H2O     OW  472   1.591   1.272   0.751 -0.1053 -0.5823 -0.2980
  158H2O     HW  473   1.600   1.326   0.668  2.4500 -1.4736 -0.6720
  158H2O     HW  474   1.682   1.236   0.770  0.0466  0.4746  1.1177
  159H2O     OW  475   1.260   1.018   1.606 -0.1250 -0.1984 -0.6964
  159H2O     HW  476   1.189   0.957   1.641  0.5502 -0.3605  0.4580
  159H2O     HW  477   1.249   1.009   1.507  0.0909  2.3165 -1.0154
  160H2O     OW  478   0.535   0.617   1.654 -0.4845  0.0282 -0.4750
  160H2O     HW  479   0.539   0.652   1.560  3.9811 -0.8568 -0.8481
  160H2O     HW  480   0.618   0.653   1.696 -0.2035  0.5411 -1.4282
  161H2O     OW  481   1.164   1.421   0.141  0.2066  0.3076  0.2025
  161H2O     HW  482   1.252   1.453   0.104 -0.3658 -1.0293 -2.5609
  161H2O     HW  483   1.148   1.322   0.143  0.7802 -0.0198 -3.9480
  162H2O     OW  484   1.023   1.486   0.396  0.3377  0.4873  0.1931
  162H2O     HW  485   1.058   1.472   0.303 -2.9777  1.4842 -1.3372
  162H2O     HW  486   0.929   1.453   0.387  0.2698  0.3521  1.2581
  163H2O     OW  487   1.448   1.042   0.926  0.1607  0.0354 -0.2353
  163H2O     HW  488   1.445   1.030   0.827 -0.9130 -1.6989 -0.0185
  163H2O     HW  489   1.536   0.998   0.943 -0.0743 -0.5640 -0.5500
  164H2O     OW  490   1.062   0.723   1.425 -0.5865 -0.1133  0.3806
  164H2O     HW  491   1.028   0.637   1.386  1.8790 -0.6321 -0.8706
  164H2O     HW  492   0.979   0.755   1.470 -0.3349 -1.1718  1.6420
  165H2O     OW  493   1.256   0.370   1.580 -0.0860  0.0797 -0.5012
  165H2O     HW  494   1.293   0.423   1.656  2.2344 -0.5701 -1.0681
  165H2O     HW  495   1.195   0.303   1.622  0.4238 -0.6050 -0.8258
  166H2O     OW  496   1.757   0.827   1.348  0.7765  0.0223  0.4979
  166H2O     HW  497   1.795   0.919   1.358 -0.4039  0.4619  1.2083
  166H2O     HW  498   1.662   0.853   1.334  1.4057  0.4742 -4.7499
  167H2O     OW  499   0.466   1.229   0.596  0.1712  0.2535 -0.2331
  167H2O     HW  500   0.544   1.290   0.609  0.5130 -0.3516  0.6599
  167H2O     HW  501   0.481   1.194   0.504  0.3265  0.0475 -0.1298
  168H2O     OW  502   1.361   0.411   0.967 -0.2236  0.3458  0.9094
  168H2O     HW  503   1.399   0.345   1.032 -0.4929  0.7796  1.5191
  168H2O     HW  504   1.261   0.405   0.976 -0.3318  0.7441  0.0990
  169H2O     OW  505   0.667   1.417   0.640 -0.3972 -0.1822  0.6261
  169H2O     HW  506   0.764   1.396   0.627 -0.5474  0.1255 -1.2235
  169H2O     HW  507   0.653   1.508   0.602 -1.4056  0.6041  2.6850
  170H2O     OW  508   1.055   0.080   0.395  0.1135 -0.2057 -0.1671
  170H2O     HW  509   1.057   0.041   0.487  0.1227 -0.5647 -0.3185
  170H2O     HW  510   1.039   0.179   0.396  2.4123  0.3950 -3.6595
  171H2O     OW  511   0.423   0.843   0.186  0.1812 -0.2282 -0.4860
  171H2O     HW  512   0.335   0.822   0.145  0.1395  1.9382 -1.6583
  171H2O     HW  513   0.412   0.905   0.263 -0.7532  1.4215 -1.8765
  172H2O     OW  514   1.043   0.071   1.552  0.2143 -1.0269 -0.6012
  172H2O     HW  515   0.956   0.038   1.586 -0.2846  1.9645  1.3654
  172H2O     HW  516   1.071   0.123   1.633 -0.7829 -2.4651  0.7226
  173H2O     OW  517   1.215   1.176   0.949  0.0148  0.2442  0.0150
  173H2O     HW  518   1.302   1.129   0.942  0.3526  0.5262  1.7413
  173H2O     HW  519   1.232   1.265   0.993  1.7086  0.5182 -1.1322
  174H2O     OW  520   1.348   1.358   1.410  0.3526 -0.0186  0.1008
  174H2O     HW  521   1.356   1.457   1.408 -0.4700  0.0373 -1.5161
  174H2O     HW  522   1.340   1.342   1.509 -0.7404 -0.4232 -0.0460
  175H2O     OW  523   0.847   1.322   1.768 -0.3360 -0.7738 -0.2452
  175H2O     HW  524   0.896   1.265   1.835 -1.4721 -0.0484  1.2646
  175H2O     HW  525   0.751   1.305   1.789 -0.9037  1.0333 -1.2145
  176H2O     OW  526   1.463   0.999   1.771 -0.3004 -0.0581  0.3232
  176H2O     HW  527   1.467   0.899   1.771 -0.3669 -0.0862  1.5814
  176H2O     HW  528   1.388   1.024   1.710  1.9963  2.2906 -1.7455
  177H2O     OW  529   1.491   0.328   0.672  0.2451  0.3707 -0.1539
  177H2O     HW  530   1.395   0.340   0.645 -0.0639  0.3971  0.8985
  177H2O     HW  531   1.498   0.395   0.746 -1.2539 -0.3407  0.6918
  178H2O     OW  532   0.037   0.922   0.488 -0.2649  0.2135  0.5157
  178H2O     HW  533  -0.048   0.905   0.437 -0.9552  0.8525  1.4121
  178H2O     HW  534   0.090   0.989   0.436 -2.1036  1.4194  0.0943
  179H2O     OW  535   1.624   0.484   1.631 -0.1589 -0.1495  0.1372
  179H2O     HW  536   1.608   0.439   1.543  0.2243  1.0192 -0.5497
  179H2O     HW  537   1.590   0.577   1.616  3.7240  1.1932 -1.6005
  180H2O     OW  538   0.574   0.419   0.421  0.2632  0.0918  0.2199
  180H2O     HW  539   0.653   0.358   0.410  0.5614  0.2400  1.4562
  180H2O     HW  540   0.496   0.356   0.431 -1.8918  1.8741 -3.1582
  181H2O     OW  541   1.572   1.588   1.497  0.1192  0.4239  0.2738
  181H2O     HW  542   1.646   1.637   1.451  0.1488  1.0878  1.0171
  181H2O     HW  543   1.609   1.495   1.505  1.1653  0.7305 -0.6873
  182H2O     OW  544   0.051   0.915   0.101  0.1986  0.4798  0.4909
  182H2O     HW  545  -0.003   0.841   0.142 -1.3344  0.4299 -1.4610
  182H2O     HW  546   0.011   1.001   0.134  0.6249  0.8965 -0.0669
  183H2O     OW  547   0.755   1.189   0.812 -0.4543 -0.4318  0.2466
  183H2O     HW  548   0.852   1.165   0.802 -0.1287  0.4855  1.0824
  183H2O     HW  549   0.722   1.208   0.720 -0.3294 -0.4596  0.1947
  184H2O     OW  550   0.590   0.584   0.644 -0.4901  0.2762 -0.0131
  184H2O     HW  551   0.523   0.658   0.641  0.1523  0.8468 -1.2783
  184H2O     HW  552   0.599   0.545   0.552 -1.3419  1.5729 -0.6747
  185H2O     OW  553   0.670   1.016   1.742  0.1557 -0.2553 -0.6774
  185H2O     HW  554   0.696   1.056   1.654 -0.9523  0.5967 -0.6347
  185H2O     HW  555   0.572   1.034   1.747  0.5098  1.7484  0.1092
  186H2O     OW  556   1.052   0.734   0.131  0.3326  0.0822  0.0978
  186H2O     HW  557   1.038   0.643   0.090 -0.3225 -0.2738  1.0715
  186H2O     HW  558   0.968   0.744   0.184  0.3081  0.0750  0.0606
  187H2O     OW  559   1.475   0.729   1.737 -0.2227  0.4108  0.1531
  187H2O     HW  560   1.447   0.643   1.781 -1.3434 -0.0116 -1.3257
  187H2O     HW  561   1.410   0.725   1.661 -0.4845  0.0678  0.3872
  188H2O     OW  562   1.608   0.109   1.682  0.2383 -0.3661  0.0573
  188H2O     HW  563   1.697   0.122   1.638  0.2365 -0.8105 -0.0822
  188H2O     HW  564   1.532   0.129   1.619 -0.0018 -0.1799  0.4031
  189H2O     OW  565   1.083   0.355   1.039  0.0188 -0.1231  0.0387
  189H2O     HW  566   1.099   0.373   1.136 -0.7261 -0.4339  0.2340
  189H2O     HW  567   1.011   0.285   1.043  0.6128 -0.7926 -0.5518
  190H2O     OW  568   1.384   0.481   0.025 -0.3688 -0.1549 -0.1645
  190H2O     HW  569   1.314   0.436   0.081 -0.8487 -0.8759 -1.3146
  190H2O     HW  570   1.461   0.428   0.061 -0.8303 -0.3516  0.5572
  191H2O     OW  571   1.180   0.383   0.167  0.4201 -0.5279  0.3051
  191H2O     HW  572   1.177   0.401   0.265 -2.3598 -0.5605  0.3119
  191H2O     HW  573   1.099   0.431   0.132  1.3773  1.1916  0.3838
  192H2O     OW  574   0.165   0.012   1.812  0.0418 -0.2782 -0.5589
  192H2O     HW  575   0.082  -0.032   1.846  0.9996 -0.5838  1.5434
  192H2O     HW  576   0.145   0.076   1.739 -0.7848  2.9898  2.2670
  193H2O     OW  577   0.120   0.941   1.640  0.4336 -0.0397 -0.1914
  193H2O     HW  578   0.107   0.912   1.735  3.2248 -1.9787 -0.2865
  193H2O     HW  579   0.183   1.018   1.644  0.5414 -0.1638  0.8854
  194H2O     OW  580   1.463   1.590   0.465 -0.0238  0.1366  0.0601
  194H2O     HW  581   1.405   1.595   0.383 -0.7645  1.8176  0.6311
  194H2O     HW  582   1.406   1.652   0.519 -1.0533  1.4417 -2.3504
  195H2O     OW  583   0.541   1.704   0.320 -0.3983 -0.2074  0.4586
  195H2O     HW  584   0.623   1.741   0.277  0.1369  0.8066  2.2643
  195H2O     HW  585   0.468   1.757   0.276  1.4420  2.0373 -0.0811
  196H2O     OW  586   1.771   0.490   1.077 -0.8723  0.0470  0.6086
  196H2O     HW  587   1.730   0.459   1.163 -3.2763 -0.6722 -0.7084
  196H2O     HW  588   1.700   0.541   1.028 -0.0889 -1.4612 -2.3596
  197H2O     OW  589   0.087   0.257   1.332  0.8097  0.5642  0.0921
  197H2O     HW  590   0.128   0.348   1.340  0.7711  0.4939  1.2978
  197H2O     HW  591   0.126   0.237   1.242  0.6589 -0.8526  0.3233
  198H2O     OW  592   0.642   0.102   1.231  0.0103  0.2816 -0.4553
  198H2O     HW  593   0.670   0.072   1.322 -0.4440  1.7659  0.2230
  198H2O     HW  594   0.562   0.159   1.253 -0.6754 -0.7101 -0.3182
  199H2O     OW  595   1.125   1.614   0.865 -0.2756 -0.2609  0.0664
  199H2O     HW  596   1.045   1.563   0.898  0.1496 -0.4272  0.8606
  199H2O     HW  597   1.113   1.651   0.773  0.9279  0.3190  0.1241
  200H2O     OW  598   0.430   0.235   1.357  0.3080  0.6533  0.0760
  200H2O     HW  599   0.369   0.157   1.363  2.1340 -0.9471 -1.0322
  200H2O     HW  600   0.430   0.272   1.451 -1.5534  0.7795  0.0493
   1.80142   1.80142   1.80142
