;#include "oplsaa.ff/forcefield.itp"

[ defaults ]
; nbfunc      comb-rule      gen-pairs      fudgeLJ      fudgeQQ 
    1             3             yes           0.5          0.5 



[ atomtypes ]
; name      mass      charge      ptype      sigma(nm)      epsilon(kj/mol)
   OW     15.9994      0.0          A       3.16557e-01       6.50194e-01
   HW     1.00800      0.0          A       0.00000e+00       0.00000e+00



[ bondtypes ]
;  i     j     func     b0(nm)     k(kJ/mol·nm²) 
  OW    HW      1        0.1          345000  



[ angletypes ]
;  i     j     k     func     θ0 (°)     kθ (kJ/mol·rad²)
  HW    OW    HW      1      109.470         383






[ moleculetype ]
 ; Name            nrexcl
   H2O               2



[ atoms ]
; nr     type     resnr     residue     atom     cgnr     charge     mass
   
  1       OW        1        H2O         OW       1       -0.8476
  2       HW        1        H2O         HW       1        0.4238
  3       HW        1        H2O         HW       1        0.4238




[ bonds ]
;   i         j        func

    1         2         1
    1         3         1

 

[ angles ]
;   i         j         k         func

    2         1         3          1


